<?xml version="1.0" encoding="UTF-8"?>

<!-- generated on Wed Feb  1 13:17:50 2017 by SUMO Version 0.26.0
<?xml version="1.0" encoding="UTF-8"?>

<configuration xmlns:xsi="http://www.w3.org/2001/XMLSchema-instance" xsi:noNamespaceSchemaLocation="http://sumo.dlr.de/xsd/sumoConfiguration.xsd">

    <input>
        <net-file value="./sumo/Vanderbilt.net.xml"/>
        <route-files value="./sumo/night.traffic.xml"/>
        <additional-files value="./sumo/detectors.xml"/>
    </input>

    <output>
        <netstate-dump value="dump63935.xml"/>
        <tripinfo-output value="tripinfo63935.xml"/>
    </output>

    <time>
        <begin value="0"/>
        <end value="7200"/>
        <step-length value="0.1"/>
    </time>

    <processing>
        <time-to-teleport value="7200"/>
    </processing>

    <traci_server>
        <remote-port value="63935"/>
    </traci_server>

</configuration>
-->

<tripinfos xmlns:xsi="http://www.w3.org/2001/XMLSchema-instance" xsi:noNamespaceSchemaLocation="http://sumo.dlr.de/xsd/tripinfo_file.xsd">
    <tripinfo id="flow79.0" depart="31.00" departLane="-120254976#1_0" departPos="3.10" departSpeed="0.00" departDelay="0.00" arrival="69.50" arrivalLane="239576140#0_0" arrivalPos="46.70" arrivalSpeed="13.89" duration="38.50" routeLength="438.06" waitSteps="1" timeLoss="8.08" rerouteNo="0" devices="tripinfo_flow79.0" vType="Car" vaporized=""/>
    <tripinfo id="flow77.0" depart="20.00" departLane="19457616#4_0" departPos="3.10" departSpeed="0.00" departDelay="0.00" arrival="70.50" arrivalLane="60820953_0" arrivalPos="73.52" arrivalSpeed="13.50" duration="50.50" routeLength="494.64" waitSteps="1" timeLoss="26.61" rerouteNo="0" devices="tripinfo_flow77.0" vType="Car" vaporized=""/>
    <tripinfo id="flow64.0" depart="18.00" departLane="19457671#0_0" departPos="3.10" departSpeed="0.00" departDelay="0.00" arrival="78.70" arrivalLane="-239576155#2_0" arrivalPos="41.72" arrivalSpeed="13.89" duration="60.70" routeLength="677.48" waitSteps="1" timeLoss="11.71" rerouteNo="0" devices="tripinfo_flow64.0" vType="Car" vaporized=""/>
    <tripinfo id="flow47.0" depart="44.00" departLane="19458809_0" departPos="3.10" departSpeed="0.00" departDelay="0.00" arrival="81.60" arrivalLane="-120254976#0_1" arrivalPos="202.74" arrivalSpeed="23.61" duration="37.60" routeLength="375.52" waitSteps="1" timeLoss="19.17" rerouteNo="0" devices="tripinfo_flow47.0" vType="Car" vaporized=""/>
    <tripinfo id="flow43.0" depart="50.00" departLane="239586111_0" departPos="3.10" departSpeed="0.00" departDelay="0.00" arrival="91.70" arrivalLane="-41139605#0_0" arrivalPos="240.45" arrivalSpeed="27.78" duration="41.70" routeLength="552.30" waitSteps="1" timeLoss="21.59" rerouteNo="0" devices="tripinfo_flow43.0" vType="Car" vaporized=""/>
    <tripinfo id="flow84.0" depart="15.00" departLane="19469847#1_0" departPos="3.10" departSpeed="0.00" departDelay="0.00" arrival="103.30" arrivalLane="-19479394#0_0" arrivalPos="82.00" arrivalSpeed="12.96" duration="88.30" routeLength="1470.68" waitSteps="1" timeLoss="25.76" rerouteNo="0" devices="tripinfo_flow84.0" vType="Car" vaporized=""/>
    <tripinfo id="flow53.0" depart="58.00" departLane="19450204#4_0" departPos="3.10" departSpeed="0.00" departDelay="0.00" arrival="110.90" arrivalLane="19469821#0_0" arrivalPos="57.11" arrivalSpeed="13.89" duration="52.90" routeLength="591.46" waitSteps="1" timeLoss="14.65" rerouteNo="0" devices="tripinfo_flow53.0" vType="Car" vaporized=""/>
    <tripinfo id="flow53.1" depart="61.30" departLane="19450204#4_0" departPos="3.10" departSpeed="0.00" departDelay="0.30" arrival="114.20" arrivalLane="19469821#0_0" arrivalPos="57.11" arrivalSpeed="13.89" duration="52.90" routeLength="591.46" waitSteps="1" timeLoss="14.64" rerouteNo="0" devices="tripinfo_flow53.1" vType="Car" vaporized=""/>
    <tripinfo id="flow42.0" depart="44.00" departLane="-19457070#1_0" departPos="3.10" departSpeed="0.00" departDelay="0.00" arrival="122.50" arrivalLane="-41139605#0_0" arrivalPos="240.45" arrivalSpeed="27.78" duration="78.50" routeLength="1236.56" waitSteps="1" timeLoss="30.68" rerouteNo="0" devices="tripinfo_flow42.0" vType="Car" vaporized=""/>
    <tripinfo id="flow79.1" depart="108.00" departLane="-120254976#1_0" departPos="3.10" departSpeed="0.00" departDelay="0.00" arrival="146.50" arrivalLane="239576140#0_0" arrivalPos="46.70" arrivalSpeed="13.89" duration="38.50" routeLength="438.06" waitSteps="1" timeLoss="8.08" rerouteNo="0" devices="tripinfo_flow79.1" vType="Car" vaporized=""/>
    <tripinfo id="flow96.0" depart="14.00" departLane="-19484309#0_0" departPos="3.10" departSpeed="0.00" departDelay="0.00" arrival="151.10" arrivalLane="19448984#1_0" arrivalPos="51.11" arrivalSpeed="13.89" duration="137.10" routeLength="1808.79" waitSteps="72" timeLoss="62.57" rerouteNo="0" devices="tripinfo_flow96.0" vType="Car" vaporized=""/>
    <tripinfo id="flow86.0" depart="18.00" departLane="-19456231#5_0" departPos="3.10" departSpeed="0.00" departDelay="0.00" arrival="151.70" arrivalLane="43073310#6_0" arrivalPos="1.84" arrivalSpeed="11.17" duration="133.70" routeLength="1421.80" waitSteps="1" timeLoss="62.45" rerouteNo="0" devices="tripinfo_flow86.0" vType="Car" vaporized=""/>
    <tripinfo id="flow89.0" depart="32.00" departLane="19452653#0_0" departPos="3.10" departSpeed="0.00" departDelay="0.00" arrival="154.40" arrivalLane="-239576155#3_0" arrivalPos="100.77" arrivalSpeed="13.89" duration="122.40" routeLength="1463.89" waitSteps="1" timeLoss="48.32" rerouteNo="0" devices="tripinfo_flow89.0" vType="Car" vaporized=""/>
    <tripinfo id="flow78.0" depart="13.00" departLane="19454055#1_0" departPos="3.10" departSpeed="0.00" departDelay="0.00" arrival="161.90" arrivalLane="19469825#0_0" arrivalPos="66.82" arrivalSpeed="13.89" duration="148.90" routeLength="2158.58" waitSteps="1" timeLoss="43.93" rerouteNo="0" devices="tripinfo_flow78.0" vType="Car" vaporized=""/>
    <tripinfo id="flow17.0" depart="26.00" departLane="19470377#0_0" departPos="3.10" departSpeed="0.00" departDelay="0.00" arrival="163.80" arrivalLane="19462495_0" arrivalPos="188.74" arrivalSpeed="13.89" duration="137.80" routeLength="1831.02" waitSteps="22" timeLoss="57.22" rerouteNo="0" devices="tripinfo_flow17.0" vType="Car" vaporized=""/>
    <tripinfo id="flow26.0" depart="0.00" departLane="19485710#2_0" departPos="3.10" departSpeed="0.00" departDelay="0.00" arrival="164.00" arrivalLane="-120254976#0_0" arrivalPos="202.74" arrivalSpeed="27.78" duration="164.00" routeLength="1018.11" waitSteps="771" timeLoss="105.99" rerouteNo="0" devices="tripinfo_flow26.0" vType="Car" vaporized=""/>
    <tripinfo id="flow20.0" depart="55.00" departLane="120254976#0_0" departPos="3.10" departSpeed="0.00" departDelay="0.00" arrival="164.60" arrivalLane="-19480564#0_0" arrivalPos="177.67" arrivalSpeed="13.89" duration="109.60" routeLength="1189.93" waitSteps="1" timeLoss="38.69" rerouteNo="0" devices="tripinfo_flow20.0" vType="Car" vaporized=""/>
    <tripinfo id="flow26.1" depart="16.00" departLane="19485710#2_0" departPos="3.10" departSpeed="0.00" departDelay="0.00" arrival="165.10" arrivalLane="-120254976#0_0" arrivalPos="202.74" arrivalSpeed="27.78" duration="149.10" routeLength="1018.11" waitSteps="620" timeLoss="91.23" rerouteNo="0" devices="tripinfo_flow26.1" vType="Car" vaporized=""/>
    <tripinfo id="flow49.1" depart="67.00" departLane="-19484163#7_0" departPos="3.10" departSpeed="0.00" departDelay="0.00" arrival="169.50" arrivalLane="19468772_1" arrivalPos="212.04" arrivalSpeed="27.78" duration="102.50" routeLength="1097.51" waitSteps="109" timeLoss="59.39" rerouteNo="0" devices="tripinfo_flow49.1" vType="Car" vaporized=""/>
    <tripinfo id="flow49.2" depart="70.30" departLane="-19484163#7_0" departPos="3.10" departSpeed="0.00" departDelay="1.30" arrival="170.50" arrivalLane="19468772_0" arrivalPos="212.04" arrivalSpeed="27.78" duration="100.20" routeLength="1097.51" waitSteps="39" timeLoss="57.16" rerouteNo="0" devices="tripinfo_flow49.2" vType="Car" vaporized=""/>
    <tripinfo id="flow49.0" depart="47.00" departLane="-19484163#7_0" departPos="3.10" departSpeed="0.00" departDelay="0.00" arrival="172.30" arrivalLane="19468772_1" arrivalPos="212.04" arrivalSpeed="27.78" duration="125.30" routeLength="1097.51" waitSteps="237" timeLoss="82.04" rerouteNo="0" devices="tripinfo_flow49.0" vType="Car" vaporized=""/>
    <tripinfo id="flow30.0" depart="43.00" departLane="19454685#2_0" departPos="3.10" departSpeed="0.00" departDelay="0.00" arrival="173.40" arrivalLane="19468772_1" arrivalPos="212.04" arrivalSpeed="27.78" duration="130.40" routeLength="2127.89" waitSteps="1" timeLoss="48.55" rerouteNo="0" devices="tripinfo_flow30.0" vType="Car" vaporized=""/>
    <tripinfo id="flow28.0" depart="42.00" departLane="-19485812#3_0" departPos="3.10" departSpeed="0.00" departDelay="0.00" arrival="174.60" arrivalLane="19468772_1" arrivalPos="212.04" arrivalSpeed="27.78" duration="132.60" routeLength="2046.69" waitSteps="88" timeLoss="58.20" rerouteNo="0" devices="tripinfo_flow28.0" vType="Car" vaporized=""/>
    <tripinfo id="flow89.1" depart="60.30" departLane="19452653#0_0" departPos="3.10" departSpeed="0.00" departDelay="1.30" arrival="175.40" arrivalLane="-239576155#3_0" arrivalPos="100.77" arrivalSpeed="13.89" duration="115.10" routeLength="1463.89" waitSteps="1" timeLoss="40.99" rerouteNo="0" devices="tripinfo_flow89.1" vType="Car" vaporized=""/>
    <tripinfo id="flow16.0" depart="72.00" departLane="-19468772_0" departPos="3.10" departSpeed="0.00" departDelay="0.00" arrival="178.80" arrivalLane="-19455519#2_0" arrivalPos="99.05" arrivalSpeed="13.89" duration="106.80" routeLength="839.98" waitSteps="346" timeLoss="68.00" rerouteNo="0" devices="tripinfo_flow16.0" vType="Car" vaporized=""/>
    <tripinfo id="flow86.1" depart="46.00" departLane="-19456231#5_0" departPos="3.10" departSpeed="0.00" departDelay="0.00" arrival="179.70" arrivalLane="43073310#6_0" arrivalPos="1.84" arrivalSpeed="11.17" duration="133.70" routeLength="1421.80" waitSteps="1" timeLoss="62.45" rerouteNo="0" devices="tripinfo_flow86.1" vType="Car" vaporized=""/>
    <tripinfo id="flow16.1" depart="94.00" departLane="-19468772_0" departPos="3.10" departSpeed="0.00" departDelay="0.00" arrival="180.40" arrivalLane="-19455519#2_0" arrivalPos="99.05" arrivalSpeed="13.89" duration="86.40" routeLength="839.98" waitSteps="134" timeLoss="47.85" rerouteNo="0" devices="tripinfo_flow16.1" vType="Car" vaporized=""/>
    <tripinfo id="flow80.0" depart="11.00" departLane="19455519#3_0" departPos="3.10" departSpeed="0.00" departDelay="0.00" arrival="180.80" arrivalLane="19457161#1_0" arrivalPos="92.07" arrivalSpeed="13.89" duration="169.80" routeLength="831.92" waitSteps="849" timeLoss="122.89" rerouteNo="0" devices="tripinfo_flow80.0" vType="Car" vaporized=""/>
    <tripinfo id="flow20.1" depart="80.00" departLane="120254976#0_0" departPos="3.10" departSpeed="0.00" departDelay="0.00" arrival="189.60" arrivalLane="-19480564#0_0" arrivalPos="177.67" arrivalSpeed="13.89" duration="109.60" routeLength="1189.93" waitSteps="1" timeLoss="38.69" rerouteNo="0" devices="tripinfo_flow20.1" vType="Car" vaporized=""/>
    <tripinfo id="flow86.2" depart="52.00" departLane="-19456231#5_0" departPos="3.10" departSpeed="0.00" departDelay="0.00" arrival="198.40" arrivalLane="43073310#6_0" arrivalPos="1.84" arrivalSpeed="11.23" duration="146.40" routeLength="1421.80" waitSteps="70" timeLoss="75.05" rerouteNo="0" devices="tripinfo_flow86.2" vType="Car" vaporized=""/>
    <tripinfo id="flow43.1" depart="157.00" departLane="239586111_0" departPos="3.10" departSpeed="0.00" departDelay="0.00" arrival="198.70" arrivalLane="-41139605#0_0" arrivalPos="240.45" arrivalSpeed="27.78" duration="41.70" routeLength="552.30" waitSteps="1" timeLoss="21.59" rerouteNo="0" devices="tripinfo_flow43.1" vType="Car" vaporized=""/>
    <tripinfo id="flow16.2" depart="151.00" departLane="-19468772_0" departPos="3.10" departSpeed="0.00" departDelay="0.00" arrival="203.70" arrivalLane="-19455519#2_0" arrivalPos="99.05" arrivalSpeed="13.89" duration="52.70" routeLength="839.98" waitSteps="1" timeLoss="14.37" rerouteNo="0" devices="tripinfo_flow16.2" vType="Car" vaporized=""/>
    <tripinfo id="flow80.1" depart="130.00" departLane="19455519#3_0" departPos="3.10" departSpeed="0.00" departDelay="0.00" arrival="206.40" arrivalLane="19457161#1_0" arrivalPos="92.07" arrivalSpeed="13.89" duration="76.40" routeLength="831.92" waitSteps="1" timeLoss="30.38" rerouteNo="0" devices="tripinfo_flow80.1" vType="Car" vaporized=""/>
    <tripinfo id="flow42.1" depart="131.00" departLane="-19457070#1_0" departPos="3.10" departSpeed="0.00" departDelay="0.00" arrival="209.50" arrivalLane="-41139605#0_0" arrivalPos="240.45" arrivalSpeed="27.78" duration="78.50" routeLength="1236.56" waitSteps="1" timeLoss="30.68" rerouteNo="0" devices="tripinfo_flow42.1" vType="Car" vaporized=""/>
    <tripinfo id="flow3.0" depart="102.00" departLane="-245915229#14_0" departPos="3.10" departSpeed="0.00" departDelay="0.00" arrival="213.50" arrivalLane="19480794#0_0" arrivalPos="39.89" arrivalSpeed="11.02" duration="111.50" routeLength="2471.10" waitSteps="1" timeLoss="20.56" rerouteNo="0" devices="tripinfo_flow3.0" vType="Car" vaporized=""/>
    <tripinfo id="flow3.1" depart="106.00" departLane="-245915229#14_0" departPos="3.10" departSpeed="0.00" departDelay="0.00" arrival="217.90" arrivalLane="19480794#0_0" arrivalPos="39.89" arrivalSpeed="11.10" duration="111.90" routeLength="2471.10" waitSteps="1" timeLoss="20.93" rerouteNo="0" devices="tripinfo_flow3.1" vType="Car" vaporized=""/>
    <tripinfo id="flow0.0" depart="10.00" departLane="-245915229#14_0" departPos="3.10" departSpeed="0.00" departDelay="0.00" arrival="219.90" arrivalLane="-19485710#3_0" arrivalPos="218.85" arrivalSpeed="13.89" duration="209.90" routeLength="3985.81" waitSteps="1" timeLoss="20.98" rerouteNo="0" devices="tripinfo_flow0.0" vType="Car" vaporized=""/>
    <tripinfo id="flow42.2" depart="143.00" departLane="-19457070#1_0" departPos="3.10" departSpeed="0.00" departDelay="0.00" arrival="221.50" arrivalLane="-41139605#0_0" arrivalPos="240.45" arrivalSpeed="27.78" duration="78.50" routeLength="1236.56" waitSteps="1" timeLoss="30.68" rerouteNo="0" devices="tripinfo_flow42.2" vType="Car" vaporized=""/>
    <tripinfo id="flow4.0" depart="58.30" departLane="120254976#0_0" departPos="3.10" departSpeed="0.00" departDelay="0.30" arrival="226.00" arrivalLane="19450375#0_0" arrivalPos="358.18" arrivalSpeed="13.89" duration="167.70" routeLength="2072.83" waitSteps="1" timeLoss="34.19" rerouteNo="0" devices="tripinfo_flow4.0" vType="Car" vaporized=""/>
    <tripinfo id="flow79.2" depart="189.00" departLane="-120254976#1_0" departPos="3.10" departSpeed="0.00" departDelay="0.00" arrival="227.50" arrivalLane="239576140#0_0" arrivalPos="46.70" arrivalSpeed="13.89" duration="38.50" routeLength="438.06" waitSteps="1" timeLoss="8.08" rerouteNo="0" devices="tripinfo_flow79.2" vType="Car" vaporized=""/>
    <tripinfo id="flow94.1" depart="21.00" departLane="239576153_0" departPos="3.10" departSpeed="0.00" departDelay="0.00" arrival="229.40" arrivalLane="-19451194#2_0" arrivalPos="112.19" arrivalSpeed="13.89" duration="208.40" routeLength="3206.18" waitSteps="178" timeLoss="84.32" rerouteNo="0" devices="tripinfo_flow94.1" vType="Car" vaporized=""/>
    <tripinfo id="flow77.1" depart="90.00" departLane="19457616#4_0" departPos="3.10" departSpeed="0.00" departDelay="0.00" arrival="231.90" arrivalLane="60820953_0" arrivalPos="73.52" arrivalSpeed="13.42" duration="141.90" routeLength="494.64" waitSteps="794" timeLoss="117.16" rerouteNo="0" devices="tripinfo_flow77.1" vType="Car" vaporized=""/>
    <tripinfo id="flow45.0" depart="53.00" departLane="239614016#0_0" departPos="3.10" departSpeed="0.00" departDelay="0.00" arrival="232.70" arrivalLane="19468772_1" arrivalPos="212.04" arrivalSpeed="25.80" duration="179.70" routeLength="1660.67" waitSteps="381" timeLoss="107.44" rerouteNo="0" devices="tripinfo_flow45.0" vType="Car" vaporized=""/>
    <tripinfo id="flow94.0" depart="14.00" departLane="239576153_0" departPos="3.10" departSpeed="0.00" departDelay="0.00" arrival="232.80" arrivalLane="-19451194#2_0" arrivalPos="112.19" arrivalSpeed="13.89" duration="218.80" routeLength="3206.18" waitSteps="272" timeLoss="94.48" rerouteNo="0" devices="tripinfo_flow94.0" vType="Car" vaporized=""/>
    <tripinfo id="flow77.2" depart="97.00" departLane="19457616#4_0" departPos="3.10" departSpeed="0.00" departDelay="0.00" arrival="234.90" arrivalLane="60820953_0" arrivalPos="73.52" arrivalSpeed="13.50" duration="137.90" routeLength="494.64" waitSteps="734" timeLoss="113.17" rerouteNo="0" devices="tripinfo_flow77.2" vType="Car" vaporized=""/>
    <tripinfo id="flow77.3" depart="174.00" departLane="19457616#4_0" departPos="3.10" departSpeed="0.00" departDelay="0.00" arrival="237.60" arrivalLane="60820953_0" arrivalPos="73.52" arrivalSpeed="13.46" duration="63.60" routeLength="494.64" waitSteps="1" timeLoss="39.61" rerouteNo="0" devices="tripinfo_flow77.3" vType="Car" vaporized=""/>
    <tripinfo id="flow97.0" depart="103.00" departLane="-19469825#1_0" departPos="3.10" departSpeed="0.00" departDelay="0.00" arrival="239.30" arrivalLane="19458188#1_0" arrivalPos="71.99" arrivalSpeed="13.89" duration="136.30" routeLength="1481.33" waitSteps="1" timeLoss="37.33" rerouteNo="0" devices="tripinfo_flow97.0" vType="Car" vaporized=""/>
    <tripinfo id="flow47.1" depart="211.00" departLane="19458809_0" departPos="3.10" departSpeed="0.00" departDelay="0.00" arrival="248.60" arrivalLane="-120254976#0_1" arrivalPos="202.74" arrivalSpeed="23.61" duration="37.60" routeLength="375.52" waitSteps="1" timeLoss="19.17" rerouteNo="0" devices="tripinfo_flow47.1" vType="Car" vaporized=""/>
    <tripinfo id="flow47.2" depart="215.00" departLane="19458809_0" departPos="3.10" departSpeed="0.00" departDelay="0.00" arrival="252.50" arrivalLane="-120254976#0_1" arrivalPos="202.74" arrivalSpeed="23.55" duration="37.50" routeLength="375.52" waitSteps="1" timeLoss="19.13" rerouteNo="0" devices="tripinfo_flow47.2" vType="Car" vaporized=""/>
    <tripinfo id="flow20.2" depart="144.00" departLane="120254976#0_0" departPos="3.10" departSpeed="0.00" departDelay="0.00" arrival="253.60" arrivalLane="-19480564#0_0" arrivalPos="177.67" arrivalSpeed="13.89" duration="109.60" routeLength="1189.93" waitSteps="1" timeLoss="38.69" rerouteNo="0" devices="tripinfo_flow20.2" vType="Car" vaporized=""/>
    <tripinfo id="flow79.3" depart="219.00" departLane="-120254976#1_0" departPos="3.10" departSpeed="0.00" departDelay="0.00" arrival="257.50" arrivalLane="239576140#0_0" arrivalPos="46.70" arrivalSpeed="13.89" duration="38.50" routeLength="438.06" waitSteps="1" timeLoss="8.08" rerouteNo="0" devices="tripinfo_flow79.3" vType="Car" vaporized=""/>
    <tripinfo id="flow43.2" depart="214.00" departLane="239586111_0" departPos="3.10" departSpeed="0.00" departDelay="0.00" arrival="257.80" arrivalLane="-41139605#0_0" arrivalPos="240.45" arrivalSpeed="27.78" duration="43.80" routeLength="552.30" waitSteps="1" timeLoss="23.72" rerouteNo="0" devices="tripinfo_flow43.2" vType="Car" vaporized=""/>
    <tripinfo id="flow44.0" depart="10.00" departLane="19485346#1_0" departPos="3.10" departSpeed="0.00" departDelay="0.00" arrival="262.60" arrivalLane="-19479801#0_0" arrivalPos="2955.18" arrivalSpeed="27.78" duration="252.60" routeLength="4555.95" waitSteps="282" timeLoss="77.83" rerouteNo="0" devices="tripinfo_flow44.0" vType="Car" vaporized=""/>
    <tripinfo id="flow43.3" depart="223.00" departLane="239586111_0" departPos="3.10" departSpeed="0.00" departDelay="0.00" arrival="264.70" arrivalLane="-41139605#0_0" arrivalPos="240.45" arrivalSpeed="27.78" duration="41.70" routeLength="552.30" waitSteps="1" timeLoss="21.59" rerouteNo="0" devices="tripinfo_flow43.3" vType="Car" vaporized=""/>
    <tripinfo id="flow47.3" depart="228.00" departLane="19458809_0" departPos="3.10" departSpeed="0.00" departDelay="0.00" arrival="265.60" arrivalLane="-120254976#0_1" arrivalPos="202.74" arrivalSpeed="23.61" duration="37.60" routeLength="375.52" waitSteps="1" timeLoss="19.17" rerouteNo="0" devices="tripinfo_flow47.3" vType="Car" vaporized=""/>
    <tripinfo id="flow1.0" depart="9.00" departLane="-19468772_0" departPos="3.10" departSpeed="0.00" departDelay="0.00" arrival="266.60" arrivalLane="-19463160#2_1" arrivalPos="204.77" arrivalSpeed="20.70" duration="257.60" routeLength="1634.41" waitSteps="1390" timeLoss="196.88" rerouteNo="0" devices="tripinfo_flow1.0" vType="Car" vaporized=""/>
    <tripinfo id="flow12.3" depart="36.00" departLane="-19468772_0" departPos="3.10" departSpeed="0.00" departDelay="0.00" arrival="267.70" arrivalLane="-19463160#2_1" arrivalPos="204.77" arrivalSpeed="20.95" duration="231.70" routeLength="1634.41" waitSteps="952" timeLoss="171.29" rerouteNo="0" devices="tripinfo_flow12.3" vType="Car" vaporized=""/>
    <tripinfo id="flow12.0" depart="2.00" departLane="-19468772_0" departPos="3.10" departSpeed="0.00" departDelay="0.00" arrival="267.70" arrivalLane="-19463160#2_0" arrivalPos="204.77" arrivalSpeed="20.95" duration="265.70" routeLength="1634.41" waitSteps="1519" timeLoss="204.85" rerouteNo="0" devices="tripinfo_flow12.0" vType="Car" vaporized=""/>
    <tripinfo id="flow45.1" depart="86.00" departLane="239614016#0_0" departPos="3.10" departSpeed="0.00" departDelay="0.00" arrival="268.50" arrivalLane="19468772_1" arrivalPos="212.04" arrivalSpeed="26.24" duration="182.50" routeLength="1660.67" waitSteps="432" timeLoss="110.16" rerouteNo="0" devices="tripinfo_flow45.1" vType="Car" vaporized=""/>
    <tripinfo id="flow1.1" depart="111.00" departLane="-19468772_0" departPos="3.10" departSpeed="0.00" departDelay="0.00" arrival="268.80" arrivalLane="-19463160#2_1" arrivalPos="204.77" arrivalSpeed="21.20" duration="157.80" routeLength="1634.41" waitSteps="205" timeLoss="98.08" rerouteNo="0" devices="tripinfo_flow1.1" vType="Car" vaporized=""/>
    <tripinfo id="flow12.1" depart="20.00" departLane="-19468772_0" departPos="3.10" departSpeed="0.00" departDelay="0.00" arrival="268.80" arrivalLane="-19463160#2_0" arrivalPos="204.77" arrivalSpeed="21.20" duration="248.80" routeLength="1634.41" waitSteps="1139" timeLoss="188.17" rerouteNo="0" devices="tripinfo_flow12.1" vType="Car" vaporized=""/>
    <tripinfo id="flow3.2" depart="158.00" departLane="-245915229#14_0" departPos="3.10" departSpeed="0.00" departDelay="0.00" arrival="269.50" arrivalLane="19480794#0_0" arrivalPos="39.89" arrivalSpeed="11.02" duration="111.50" routeLength="2471.10" waitSteps="1" timeLoss="20.56" rerouteNo="0" devices="tripinfo_flow3.2" vType="Car" vaporized=""/>
    <tripinfo id="flow39.0" depart="80.00" departLane="-19481422#1_0" departPos="3.10" departSpeed="0.00" departDelay="0.00" arrival="269.70" arrivalLane="-19470377#0_0" arrivalPos="41.78" arrivalSpeed="26.00" duration="189.70" routeLength="941.64" waitSteps="811" timeLoss="137.17" rerouteNo="0" devices="tripinfo_flow39.0" vType="Car" vaporized=""/>
    <tripinfo id="flow12.4" depart="121.00" departLane="-19468772_0" departPos="3.10" departSpeed="0.00" departDelay="0.00" arrival="269.90" arrivalLane="-19463160#2_1" arrivalPos="204.77" arrivalSpeed="21.45" duration="148.90" routeLength="1634.41" waitSteps="158" timeLoss="89.27" rerouteNo="0" devices="tripinfo_flow12.4" vType="Car" vaporized=""/>
    <tripinfo id="flow12.2" depart="29.00" departLane="-19468772_0" departPos="3.10" departSpeed="0.00" departDelay="0.00" arrival="269.90" arrivalLane="-19463160#2_0" arrivalPos="204.77" arrivalSpeed="21.45" duration="240.90" routeLength="1634.41" waitSteps="996" timeLoss="180.38" rerouteNo="0" devices="tripinfo_flow12.2" vType="Car" vaporized=""/>
    <tripinfo id="flow34.0" depart="72.00" departLane="19481368#2_0" departPos="3.10" departSpeed="0.00" departDelay="0.00" arrival="271.00" arrivalLane="19468772_1" arrivalPos="212.04" arrivalSpeed="26.31" duration="199.00" routeLength="2140.26" waitSteps="86" timeLoss="108.49" rerouteNo="0" devices="tripinfo_flow34.0" vType="Car" vaporized=""/>
    <tripinfo id="flow53.2" depart="224.00" departLane="19450204#4_0" departPos="3.10" departSpeed="0.00" departDelay="0.00" arrival="276.90" arrivalLane="19469821#0_0" arrivalPos="57.11" arrivalSpeed="13.89" duration="52.90" routeLength="591.46" waitSteps="1" timeLoss="14.65" rerouteNo="0" devices="tripinfo_flow53.2" vType="Car" vaporized=""/>
    <tripinfo id="flow86.3" depart="111.00" departLane="-19456231#5_0" departPos="3.10" departSpeed="0.00" departDelay="0.00" arrival="279.20" arrivalLane="43073310#6_0" arrivalPos="1.84" arrivalSpeed="11.16" duration="168.20" routeLength="1421.80" waitSteps="266" timeLoss="96.67" rerouteNo="0" devices="tripinfo_flow86.3" vType="Car" vaporized=""/>
    <tripinfo id="flow79.4" depart="243.00" departLane="-120254976#1_0" departPos="3.10" departSpeed="0.00" departDelay="0.00" arrival="281.50" arrivalLane="239576140#0_0" arrivalPos="46.70" arrivalSpeed="13.89" duration="38.50" routeLength="438.06" waitSteps="1" timeLoss="8.08" rerouteNo="0" devices="tripinfo_flow79.4" vType="Car" vaporized=""/>
    <tripinfo id="flow56.0" depart="19.00" departLane="-19479452#1_0" departPos="3.10" departSpeed="0.00" departDelay="0.00" arrival="283.80" arrivalLane="-19485346#4_0" arrivalPos="96.11" arrivalSpeed="13.89" duration="264.80" routeLength="2121.98" waitSteps="829" timeLoss="166.65" rerouteNo="0" devices="tripinfo_flow56.0" vType="Car" vaporized=""/>
    <tripinfo id="flow56.1" depart="60.00" departLane="-19479452#1_0" departPos="3.10" departSpeed="0.00" departDelay="0.00" arrival="285.60" arrivalLane="-19485346#4_0" arrivalPos="96.11" arrivalSpeed="13.89" duration="225.60" routeLength="2121.98" waitSteps="409" timeLoss="127.75" rerouteNo="0" devices="tripinfo_flow56.1" vType="Car" vaporized=""/>
    <tripinfo id="flow14.0" depart="124.30" departLane="-19468772_0" departPos="3.10" departSpeed="0.00" departDelay="0.30" arrival="289.00" arrivalLane="-19469820#4_0" arrivalPos="167.21" arrivalSpeed="13.89" duration="164.70" routeLength="1995.49" waitSteps="146" timeLoss="65.56" rerouteNo="0" devices="tripinfo_flow14.0" vType="Car" vaporized=""/>
    <tripinfo id="flow23.0" depart="53.00" departLane="19470377#0_0" departPos="3.10" departSpeed="0.00" departDelay="0.00" arrival="291.10" arrivalLane="19484165_0" arrivalPos="96.06" arrivalSpeed="13.89" duration="238.10" routeLength="723.40" waitSteps="1605" timeLoss="206.16" rerouteNo="0" devices="tripinfo_flow23.0" vType="Car" vaporized=""/>
    <tripinfo id="flow23.1" depart="74.00" departLane="19470377#0_0" departPos="3.10" departSpeed="0.00" departDelay="0.00" arrival="292.40" arrivalLane="19484165_0" arrivalPos="96.06" arrivalSpeed="13.89" duration="218.40" routeLength="723.40" waitSteps="1385" timeLoss="186.65" rerouteNo="0" devices="tripinfo_flow23.1" vType="Car" vaporized=""/>
    <tripinfo id="flow48.0" depart="88.00" departLane="245915229#7_0" departPos="3.10" departSpeed="0.00" departDelay="0.00" arrival="293.10" arrivalLane="-41139605#0_0" arrivalPos="240.45" arrivalSpeed="27.78" duration="205.10" routeLength="2903.36" waitSteps="125" timeLoss="91.51" rerouteNo="0" devices="tripinfo_flow48.0" vType="Car" vaporized=""/>
    <tripinfo id="flow23.2" depart="77.30" departLane="19470377#0_0" departPos="3.10" departSpeed="0.00" departDelay="2.30" arrival="294.30" arrivalLane="19484165_0" arrivalPos="96.06" arrivalSpeed="13.89" duration="217.00" routeLength="723.40" waitSteps="1340" timeLoss="185.23" rerouteNo="0" devices="tripinfo_flow23.2" vType="Car" vaporized=""/>
    <tripinfo id="flow23.3" depart="151.00" departLane="19470377#0_0" departPos="3.10" departSpeed="0.00" departDelay="0.00" arrival="296.40" arrivalLane="19484165_0" arrivalPos="96.06" arrivalSpeed="13.89" duration="145.40" routeLength="723.40" waitSteps="604" timeLoss="114.36" rerouteNo="0" devices="tripinfo_flow23.3" vType="Car" vaporized=""/>
    <tripinfo id="flow3.3" depart="185.00" departLane="-245915229#14_0" departPos="3.10" departSpeed="0.00" departDelay="0.00" arrival="296.50" arrivalLane="19480794#0_0" arrivalPos="39.89" arrivalSpeed="11.02" duration="111.50" routeLength="2471.10" waitSteps="1" timeLoss="20.56" rerouteNo="0" devices="tripinfo_flow3.3" vType="Car" vaporized=""/>
    <tripinfo id="flow42.3" depart="219.00" departLane="-19457070#1_0" departPos="3.10" departSpeed="0.00" departDelay="0.00" arrival="297.90" arrivalLane="-41139605#0_0" arrivalPos="240.45" arrivalSpeed="27.78" duration="78.90" routeLength="1236.56" waitSteps="1" timeLoss="31.15" rerouteNo="0" devices="tripinfo_flow42.3" vType="Car" vaporized=""/>
    <tripinfo id="flow23.4" depart="210.00" departLane="19470377#0_0" departPos="3.10" departSpeed="0.00" departDelay="0.00" arrival="298.70" arrivalLane="19484165_0" arrivalPos="96.06" arrivalSpeed="13.89" duration="88.70" routeLength="723.40" waitSteps="259" timeLoss="58.13" rerouteNo="0" devices="tripinfo_flow23.4" vType="Car" vaporized=""/>
    <tripinfo id="flow82.0" depart="50.00" departLane="-19455449#1_0" departPos="3.10" departSpeed="0.00" departDelay="0.00" arrival="305.10" arrivalLane="19481432#1_0" arrivalPos="64.19" arrivalSpeed="12.54" duration="255.10" routeLength="2996.53" waitSteps="1" timeLoss="44.31" rerouteNo="0" devices="tripinfo_flow82.0" vType="Car" vaporized=""/>
    <tripinfo id="flow62.0" depart="63.00" departLane="-19481432#4_0" departPos="3.10" departSpeed="0.00" departDelay="0.00" arrival="306.20" arrivalLane="-19485812#4_1" arrivalPos="47.14" arrivalSpeed="24.12" duration="243.20" routeLength="2400.15" waitSteps="711" timeLoss="143.30" rerouteNo="0" devices="tripinfo_flow62.0" vType="Car" vaporized=""/>